LAMMPS (29 Sep 2021 - Update 2)
OMP_NUM_THREADS environment is not set. Defaulting to 1 thread. (src/comm.cpp:98)
  using 1 OpenMP thread(s) per MPI task
# Pure HNS crystal, ReaxFF tests for benchmarking LAMMPS
# See README for more info

variable x index 2
variable y index 2
variable z index 2
variable t index 100


units             real
atom_style        charge
atom_modify sort  100 0.0 # optional
dimension         3
boundary          p p p
box               tilt large

read_data         data.hns-equil
Reading data file ...
  triclinic box = (0.0000000 0.0000000 0.0000000) to (22.326000 11.141200 13.778966) with tilt (0.0000000 -5.0260300 0.0000000)
  4 by 2 by 2 MPI processor grid
  reading atoms ...
  304 atoms
  reading velocities ...
  304 velocities
  read_data CPU = 0.002 seconds
replicate         $x $y $z bbox
replicate         2 $y $z bbox
replicate         2 2 $z bbox
replicate         2 2 2 bbox
Replicating atoms ...
  triclinic box = (0.0000000 0.0000000 0.0000000) to (44.652000 22.282400 27.557932) with tilt (0.0000000 -10.052060 0.0000000)
  4 by 2 by 2 MPI processor grid
  bounding box image = (0 -1 -1) to (0 1 1)
  bounding box extra memory = 0.03 MB
  average # of replicas added to proc = 4.50 out of 8 (56.25%)
  2432 atoms
  replicate CPU = 0.001 seconds


pair_style        reax/c NULL
pair_coeff        * * ffield.reax.hns C H O N

compute           reax all pair reax/c

neighbor          1.0 bin
neigh_modify      every 20 delay 0 check no

timestep          0.1

thermo_style      custom step temp pe press evdwl ecoul vol
thermo_modify     norm yes
thermo            10

velocity          all create 300.0 41279 loop geom

fix               1 all nve
fix               2 all qeq/reax 1 0.0 10.0 1e-6 reax/c

run               100
Neighbor list info ...
  update every 20 steps, delay 0 steps, check no
  max neighbors/atom: 2000, page size: 100000
  master list distance cutoff = 11
  ghost atom cutoff = 11
  binsize = 5.5, bins = 10 5 6
  2 neighbor lists, perpetual/occasional/extra = 2 0 0
  (1) pair reax/c, perpetual
      attributes: half, newton off, ghost
      pair build: half/bin/newtoff/ghost
      stencil: full/ghost/bin/3d
      bin: standard
  (2) fix qeq/reax, perpetual, copy from (1)
      attributes: half, newton off, ghost
      pair build: copy
      stencil: none
      bin: none
Per MPI rank memory allocation (min/avg/max) = 58.81 | 59.37 | 59.93 Mbytes
Step Temp PotEng Press E_vdwl E_coul Volume 
       0          300   -113.27833    437.52549   -111.57687   -1.7014647    27418.867 
      10    299.38517   -113.27631    1439.2553   -111.57492   -1.7013814    27418.867 
      20    300.27108   -113.27884     3764.369   -111.57762   -1.7012246    27418.867 
      30    302.21064   -113.28428    7007.6658   -111.58335   -1.7009363    27418.867 
      40    303.52264   -113.28799    9844.7932   -111.58747   -1.7005187    27418.867 
      50    301.87059   -113.28324    9663.0548   -111.58318   -1.7000523    27418.867 
      60    296.67808   -113.26777    7273.8377   -111.56815   -1.6996136    27418.867 
      70    292.19999   -113.25435    5533.6072   -111.55514   -1.6992157    27418.867 
      80    293.58677   -113.25831    5993.3768   -111.55946   -1.6988534    27418.867 
      90    300.62635   -113.27925    7202.8866   -111.58069   -1.6985591    27418.867 
     100    305.38276   -113.29357     10085.75   -111.59518   -1.6983875    27418.867 
Loop time of 6.96494 on 16 procs for 100 steps with 2432 atoms

Performance: 0.124 ns/day, 193.471 hours/ns, 14.358 timesteps/s
58.1% CPU use with 16 MPI tasks x 1 OpenMP threads

MPI task timing breakdown:
Section |  min time  |  avg time  |  max time  |%varavg| %total
---------------------------------------------------------------
Pair    | 3.9862     | 4.7152     | 5.62       |  20.3 | 67.70
Neigh   | 0.10824    | 0.11336    | 0.11641    |   0.9 |  1.63
Comm    | 0.37549    | 1.2811     | 2.0103     |  39.0 | 18.39
Output  | 0.00032901 | 0.0003863  | 0.0011128  |   0.0 |  0.01
Modify  | 0.85112    | 0.85443    | 0.85978    |   0.3 | 12.27
Other   |            | 0.0004033  |            |       |  0.01

Nlocal:        152.000 ave         155 max         148 min
Histogram: 2 1 1 0 2 2 0 2 5 1
Nghost:        3415.38 ave        3436 max        3392 min
Histogram: 2 1 4 0 1 0 1 1 3 3
Neighs:        65389.3 ave       66597 max       63714 min
Histogram: 2 1 1 0 2 2 0 2 5 1

Total # of neighbors = 1046229
Ave neighs/atom = 430.19285
Neighbor list builds = 5
Dangerous builds not checked
Total wall time: 0:00:07
