LAMMPS (29 Sep 2021 - Update 2)
OMP_NUM_THREADS environment is not set. Defaulting to 1 thread. (src/comm.cpp:98)
  using 1 OpenMP thread(s) per MPI task
# Pure HNS crystal, ReaxFF tests for benchmarking LAMMPS
# See README for more info

variable x index 2
variable y index 2
variable z index 2
variable t index 100


units             real
atom_style        charge
atom_modify sort  100 0.0 # optional
dimension         3
boundary          p p p
box               tilt large

read_data         data.hns-equil
Reading data file ...
  triclinic box = (0.0000000 0.0000000 0.0000000) to (22.326000 11.141200 13.778966) with tilt (0.0000000 -5.0260300 0.0000000)
  2 by 1 by 2 MPI processor grid
  reading atoms ...
  304 atoms
  reading velocities ...
  304 velocities
  read_data CPU = 0.001 seconds
replicate         $x $y $z bbox
replicate         2 $y $z bbox
replicate         2 2 $z bbox
replicate         2 2 2 bbox
Replicating atoms ...
  triclinic box = (0.0000000 0.0000000 0.0000000) to (44.652000 22.282400 27.557932) with tilt (0.0000000 -10.052060 0.0000000)
  2 by 1 by 2 MPI processor grid
  bounding box image = (0 -1 -1) to (0 1 1)
  bounding box extra memory = 0.03 MB
  average # of replicas added to proc = 5.00 out of 8 (62.50%)
  2432 atoms
  replicate CPU = 0.005 seconds


pair_style        reax/c NULL
pair_coeff        * * ffield.reax.hns C H O N

compute           reax all pair reax/c

neighbor          1.0 bin
neigh_modify      every 20 delay 0 check no

timestep          0.1

thermo_style      custom step temp pe press evdwl ecoul vol
thermo_modify     norm yes
thermo            10

velocity          all create 300.0 41279 loop geom

fix               1 all nve
fix               2 all qeq/reax 1 0.0 10.0 1e-6 reax/c

run               100
Neighbor list info ...
  update every 20 steps, delay 0 steps, check no
  max neighbors/atom: 2000, page size: 100000
  master list distance cutoff = 11
  ghost atom cutoff = 11
  binsize = 5.5, bins = 10 5 6
  2 neighbor lists, perpetual/occasional/extra = 2 0 0
  (1) pair reax/c, perpetual
      attributes: half, newton off, ghost
      pair build: half/bin/newtoff/ghost
      stencil: full/ghost/bin/3d
      bin: standard
  (2) fix qeq/reax, perpetual, copy from (1)
      attributes: half, newton off, ghost
      pair build: copy
      stencil: none
      bin: none
Per MPI rank memory allocation (min/avg/max) = 103.8 | 103.8 | 103.8 Mbytes
Step Temp PotEng Press E_vdwl E_coul Volume 
       0          300   -113.27833    437.52121   -111.57687   -1.7014647    27418.867 
      10    299.38517   -113.27631    1439.2497   -111.57492   -1.7013814    27418.867 
      20    300.27107   -113.27884    3764.3654   -111.57762   -1.7012246    27418.867 
      30    302.21063   -113.28428    7007.6602   -111.58335   -1.7009363    27418.867 
      40    303.52264   -113.28799    9844.7874   -111.58747   -1.7005187    27418.867 
      50    301.87059   -113.28324    9662.9687   -111.58318   -1.7000525    27418.867 
      60    296.67807   -113.26777    7273.8625   -111.56815   -1.6996136    27418.867 
      70    292.19999   -113.25435    5533.5895   -111.55514   -1.6992157    27418.867 
      80    293.58678   -113.25831    5993.3486   -111.55946   -1.6988534    27418.867 
      90    300.62637   -113.27925    7202.8296   -111.58069   -1.6985592    27418.867 
     100    305.38276   -113.29357    10085.732   -111.59518   -1.6983875    27418.867 
Loop time of 16.4942 on 4 procs for 100 steps with 2432 atoms

Performance: 0.052 ns/day, 458.171 hours/ns, 6.063 timesteps/s
93.6% CPU use with 4 MPI tasks x 1 OpenMP threads

MPI task timing breakdown:
Section |  min time  |  avg time  |  max time  |%varavg| %total
---------------------------------------------------------------
Pair    | 6.4107     | 10.95      | 13.598     |  82.5 | 66.38
Neigh   | 0.15563    | 0.24091    | 0.27547    |  10.1 |  1.46
Comm    | 0.013601   | 2.6619     | 7.201      | 167.3 | 16.14
Output  | 0.00032206 | 0.00041131 | 0.00055727 |   0.0 |  0.00
Modify  | 2.6047     | 2.6401     | 2.7254     |   3.1 | 16.01
Other   |            | 0.001266   |            |       |  0.01

Nlocal:        608.000 ave         612 max         604 min
Histogram: 1 0 0 0 0 2 0 0 0 1
Nghost:        5737.25 ave        5744 max        5732 min
Histogram: 1 0 1 0 0 1 0 0 0 1
Neighs:        231539.0 ave      233090 max      229970 min
Histogram: 1 0 0 0 1 1 0 0 0 1

Total # of neighbors = 926155
Ave neighs/atom = 380.82031
Neighbor list builds = 5
Dangerous builds not checked
Total wall time: 0:00:16
