
srun -N 32 -n 1600 --cpus-per-task=1 --ntasks-per-node=50 /g/g12/milroy1/kubecon-2023/lammps_ruby/lammps/bin/bin/lmp -v x 64 -v y 16 -v z 16 -in in.reaxc.hns -nocite
LAMMPS (29 Sep 2021 - Update 2)
OMP_NUM_THREADS environment is not set. Defaulting to 1 thread. (src/comm.cpp:98)
  using 1 OpenMP thread(s) per MPI task
Reading data file ...
  triclinic box = (0.0000000 0.0000000 0.0000000) to (22.326000 11.141200 13.778966) with tilt (0.0000000 -5.0260300 0.0000000)
  16 by 10 by 10 MPI processor grid
  reading atoms ...
  304 atoms
  reading velocities ...
  304 velocities
  read_data CPU = 0.026 seconds
Replicating atoms ...
  triclinic box = (0.0000000 0.0000000 0.0000000) to (1428.8640 178.25920 220.46346) with tilt (0.0000000 -80.416480 0.0000000)
  40 by 5 by 8 MPI processor grid
  bounding box image = (0 -1 -1) to (0 1 1)
  bounding box extra memory = 0.03 MB
  average # of replicas added to proc = 61.67 out of 16384 (0.38%)
  4980736 atoms
  replicate CPU = 0.004 seconds
Neighbor list info ...
  update every 20 steps, delay 0 steps, check no
  max neighbors/atom: 2000, page size: 100000
  master list distance cutoff = 11
  ghost atom cutoff = 11
  binsize = 5.5, bins = 275 33 41
  2 neighbor lists, perpetual/occasional/extra = 2 0 0
  (1) pair reax/c, perpetual
      attributes: half, newton off, ghost
      pair build: half/bin/newtoff/ghost
      stencil: full/ghost/bin/3d
      bin: standard
  (2) fix qeq/reax, perpetual, copy from (1)
      attributes: half, newton off, ghost
      pair build: copy
      stencil: none
      bin: none
Setting up Verlet run ...
  Unit style    : real
  Current step  : 0
  Time step     : 0.1
Per MPI rank memory allocation (min/avg/max) = 241.4 | 245.2 | 247.3 Mbytes
Step Temp PotEng Press E_vdwl E_coul Volume 
       0          300   -113.27833    439.01979   -111.57687   -1.7014647     56153840 
      10    300.78686   -113.28051    827.36847   -111.57907   -1.7014353     56153840 
      20    302.44845   -113.28532    1713.1411   -111.58399   -1.7013238     56153840 
      30    302.57357   -113.28556    4309.4668   -111.58447    -1.701095     56153840 
      40    300.60957   -113.27964    6382.2543   -111.57887   -1.7007685     56153840 
      50    297.41258   -113.27006    6487.7551   -111.56966   -1.7004036     56153840 
      60    294.73455   -113.26203    6223.0674     -111.562   -1.7000353     56153840 
      70    294.66561   -113.26178    6861.6835   -111.56212   -1.6996621     56153840 
      80    297.77718   -113.27104    8253.0241   -111.57175   -1.6992888     56153840 
      90     301.6809   -113.28267    9374.9232   -111.58372   -1.6989575     56153840 
     100    302.58671   -113.28532      10369.1    -111.5866   -1.6987204     56153840 
Loop time of 59.7651 on 1600 procs for 100 steps with 4980736 atoms

Performance: 0.014 ns/day, 1660.143 hours/ns, 1.673 timesteps/s
99.6% CPU use with 1600 MPI tasks x 1 OpenMP threads

MPI task timing breakdown:
Section |  min time  |  avg time  |  max time  |%varavg| %total
---------------------------------------------------------------
Pair    | 35.975     | 41.197     | 46.35      |  28.0 | 68.93
Neigh   | 0.53383    | 0.55235    | 0.61797    |   1.7 |  0.92
Comm    | 0.068955   | 4.9258     | 10.262     |  81.1 |  8.24
Output  | 0.0054731  | 0.144      | 0.43474    |  34.1 |  0.24
Modify  | 12.745     | 12.941     | 13.154     |   3.3 | 21.65
Other   |            | 0.005064   |            |       |  0.01

Nlocal:        3112.96 ave        3164 max        3048 min
Histogram: 58 129 76 72 191 228 412 223 157 54
Nghost:        11791.8 ave       11919 max       11612 min
Histogram: 148 109 65 76 186 56 70 475 354 61
Neighs:    1.02708e+06 ave 1.04328e+06 max 1.00543e+06 min
Histogram: 47 135 73 73 169 231 368 277 164 63

Total # of neighbors = 1.6433275e+09
Ave neighs/atom = 329.93669
Neighbor list builds = 5
Dangerous builds not checked
Total wall time: 0:01:00
