
srun -N 8 -n 400 --cpus-per-task=1 --ntasks-per-node=50 /g/g12/milroy1/kubecon-2023/lammps_ruby/lammps/bin/bin/lmp -v x 64 -v y 16 -v z 16 -in in.reaxc.hns -nocite
LAMMPS (29 Sep 2021 - Update 2)
OMP_NUM_THREADS environment is not set. Defaulting to 1 thread. (src/comm.cpp:98)
  using 1 OpenMP thread(s) per MPI task
Reading data file ...
  triclinic box = (0.0000000 0.0000000 0.0000000) to (22.326000 11.141200 13.778966) with tilt (0.0000000 -5.0260300 0.0000000)
  10 by 5 by 8 MPI processor grid
  reading atoms ...
  304 atoms
  reading velocities ...
  304 velocities
  read_data CPU = 0.013 seconds
Replicating atoms ...
  triclinic box = (0.0000000 0.0000000 0.0000000) to (1428.8640 178.25920 220.46346) with tilt (0.0000000 -80.416480 0.0000000)
  25 by 4 by 4 MPI processor grid
  bounding box image = (0 -1 -1) to (0 1 1)
  bounding box extra memory = 0.03 MB
  average # of replicas added to proc = 138.19 out of 16384 (0.84%)
  4980736 atoms
  replicate CPU = 0.005 seconds
Neighbor list info ...
  update every 20 steps, delay 0 steps, check no
  max neighbors/atom: 2000, page size: 100000
  master list distance cutoff = 11
  ghost atom cutoff = 11
  binsize = 5.5, bins = 275 33 41
  2 neighbor lists, perpetual/occasional/extra = 2 0 0
  (1) pair reax/c, perpetual
      attributes: half, newton off, ghost
      pair build: half/bin/newtoff/ghost
      stencil: full/ghost/bin/3d
      bin: standard
  (2) fix qeq/reax, perpetual, copy from (1)
      attributes: half, newton off, ghost
      pair build: copy
      stencil: none
      bin: none
Setting up Verlet run ...
  Unit style    : real
  Current step  : 0
  Time step     : 0.1
Per MPI rank memory allocation (min/avg/max) = 617.2 | 622.1 | 627.2 Mbytes
Step Temp PotEng Press E_vdwl E_coul Volume 
       0          300   -113.27833    439.01979   -111.57687   -1.7014647     56153840 
      10    300.78686   -113.28051    827.36847   -111.57907   -1.7014353     56153840 
      20    302.44845   -113.28532    1713.1411   -111.58399   -1.7013238     56153840 
      30    302.57357   -113.28556    4309.4667   -111.58447    -1.701095     56153840 
      40    300.60957   -113.27964    6382.2551   -111.57887   -1.7007685     56153840 
      50    297.41258   -113.27006    6487.7556   -111.56966   -1.7004036     56153840 
      60    294.73454   -113.26203    6223.0693     -111.562   -1.7000353     56153840 
      70     294.6656   -113.26178    6861.6661   -111.56212   -1.6996621     56153840 
      80    297.77718   -113.27104    8253.0323   -111.57175   -1.6992887     56153840 
      90     301.6809   -113.28267    9374.9229   -111.58372   -1.6989575     56153840 
     100    302.58671   -113.28532    10369.089    -111.5866   -1.6987204     56153840 
Loop time of 206.902 on 400 procs for 100 steps with 4980736 atoms

Performance: 0.004 ns/day, 5747.264 hours/ns, 0.483 timesteps/s
99.5% CPU use with 400 MPI tasks x 1 OpenMP threads

MPI task timing breakdown:
Section |  min time  |  avg time  |  max time  |%varavg| %total
---------------------------------------------------------------
Pair    | 131.83     | 145.22     | 159.04     |  47.3 | 70.19
Neigh   | 1.4854     | 1.5263     | 1.7412     |   2.6 |  0.74
Comm    | 0.11615    | 13.575     | 27.32      | 155.1 |  6.56
Output  | 0.011671   | 0.11372    | 0.32206    |  24.5 |  0.05
Modify  | 45.965     | 46.448     | 47.426     |   6.1 | 22.45
Other   |            | 0.01458    |            |       |  0.01

Nlocal:        12451.8 ave       12604 max       12313 min
Histogram: 16 23 84 34 71 72 32 17 28 23
Nghost:        24073.9 ave       24377 max       23727 min
Histogram: 16 0 14 70 61 129 31 31 32 16
Neighs:    3.74792e+06 ave 3.79284e+06 max 3.70453e+06 min
Histogram: 16 23 78 24 41 112 38 15 28 25

Total # of neighbors = 1.4991662e+09
Ave neighs/atom = 300.99291
Neighbor list builds = 5
Dangerous builds not checked
Total wall time: 0:03:30
