
jsrun -p 400 --rs_per_socket=1 -c 20 -r 2 --stdio_stderr=/p/gpfs1/sochat1/kubecon/lassen_lammps_400_2_ranks.out --stdio_stdout=/p/gpfs1/sochat1/kubecon/lassen_lammps_400_2_ranks.out /g/g0/sochat1/kubecon-2023/lammps/bin/bin/lmp -v x 64 -v y 16 -v z 16 -in in.reaxc.hns -nocite
LAMMPS (29 Sep 2021 - Update 2)
  using 4 OpenMP thread(s) per MPI task
Reading data file ...
  triclinic box = (0.0000000 0.0000000 0.0000000) to (22.326000 11.141200 13.778966) with tilt (0.0000000 -5.0260300 0.0000000)
  10 by 5 by 8 MPI processor grid
  reading atoms ...
  304 atoms
  reading velocities ...
  304 velocities
  read_data CPU = 0.011 seconds
Replicating atoms ...
  triclinic box = (0.0000000 0.0000000 0.0000000) to (1428.8640 178.25920 220.46346) with tilt (0.0000000 -80.416480 0.0000000)
  25 by 4 by 4 MPI processor grid
  bounding box image = (0 -1 -1) to (0 1 1)
  bounding box extra memory = 0.03 MB
  average # of replicas added to proc = 137.88 out of 16384 (0.84%)
  4980736 atoms
  replicate CPU = 0.008 seconds
Neighbor list info ...
  update every 20 steps, delay 0 steps, check no
  max neighbors/atom: 2000, page size: 100000
  master list distance cutoff = 11
  ghost atom cutoff = 11
  binsize = 5.5, bins = 275 33 41
  2 neighbor lists, perpetual/occasional/extra = 2 0 0
  (1) pair reax/c, perpetual
      attributes: half, newton off, ghost
      pair build: half/bin/newtoff/ghost
      stencil: full/ghost/bin/3d
      bin: standard
  (2) fix qeq/reax, perpetual, copy from (1)
      attributes: half, newton off, ghost
      pair build: copy
      stencil: none
      bin: none
Setting up Verlet run ...
  Unit style    : real
  Current step  : 0
  Time step     : 0.1
Per MPI rank memory allocation (min/avg/max) = 624.0 | 628.9 | 634.0 Mbytes
Step Temp PotEng Press E_vdwl E_coul Volume 
       0          300   -113.27833    439.01972   -111.57687   -1.7014647     56153840 
      10     300.7703   -113.28045     852.2976   -111.57902   -1.7014336     56153840 
      20    302.37485   -113.28509    1753.5565   -111.58377   -1.7013221     56153840 
      30    302.46703   -113.28524    4333.7706   -111.58415   -1.7010949     56153840 
      40    300.50662   -113.27932    6407.4244   -111.57855   -1.7007713     56153840 
      50    297.37627   -113.26995    6439.6923   -111.56954    -1.700409     56153840 
      60    294.76934   -113.26213    6105.2659   -111.56209   -1.7000422     56153840 
      70    294.72024   -113.26195    6745.4093   -111.56228   -1.6996677     56153840 
      80    297.79918    -113.2711    8122.4811   -111.57181   -1.6992899     56153840 
      90    301.62334    -113.2825    9238.4182   -111.58355   -1.6989507     56153840 
     100    302.46834   -113.28496     10276.99   -111.58626    -1.698703     56153840 
Loop time of 289.654 on 1600 procs for 100 steps with 4980736 atoms

Performance: 0.003 ns/day, 8045.952 hours/ns, 0.345 timesteps/s
100.0% CPU use with 400 MPI tasks x 4 OpenMP threads

MPI task timing breakdown:
Section |  min time  |  avg time  |  max time  |%varavg| %total
---------------------------------------------------------------
Pair    | 176.97     | 196.39     | 216.96     |  60.4 | 67.80
Neigh   | 1.4822     | 1.5114     | 1.5674     |   1.2 |  0.52
Comm    | 0.055954   | 19.263     | 39.857     | 193.2 |  6.65
Output  | 0.0027692  | 0.2232     | 0.5172     |  29.4 |  0.08
Modify  | 70.968     | 72.262     | 73.451     |   8.5 | 24.95
Other   |            | 0.003964   |            |       |  0.00

Nlocal:        12451.8 ave       12609 max       12312 min
Histogram: 16 20 88 31 77 72 29 19 28 20
Nghost:        24074.8 ave       24382 max       23741 min
Histogram: 16 0 28 71 47 140 20 31 31 16
Neighs:    3.74794e+06 ave 3.79377e+06 max 3.70413e+06 min
Histogram: 16 21 81 23 47 105 40 15 30 22

Total # of neighbors = 1.4991749e+09
Ave neighs/atom = 300.99464
Neighbor list builds = 5
Dangerous builds not checked
Total wall time: 0:04:54
