
jsrun -p 6400 --rs_per_socket=1 -c 20 -r 2 --stdio_stderr=/p/gpfs1/sochat1/kubecon/lassen_lammps_6400_2_ranks.out --stdio_stdout=/p/gpfs1/sochat1/kubecon/lassen_lammps_6400_2_ranks.out /g/g0/sochat1/kubecon-2023/lammps/bin/bin/lmp -v x 64 -v y 16 -v z 16 -in in.reaxc.hns -nocite
LAMMPS (29 Sep 2021 - Update 2)
  using 4 OpenMP thread(s) per MPI task
Reading data file ...
  triclinic box = (0.0000000 0.0000000 0.0000000) to (22.326000 11.141200 13.778966) with tilt (0.0000000 -5.0260300 0.0000000)
  25 by 16 by 16 MPI processor grid
  reading atoms ...
  304 atoms
  reading velocities ...
  304 velocities
  read_data CPU = 0.130 seconds
Replicating atoms ...
  triclinic box = (0.0000000 0.0000000 0.0000000) to (1428.8640 178.25920 220.46346) with tilt (0.0000000 -80.416480 0.0000000)
  64 by 10 by 10 MPI processor grid
  bounding box image = (0 -1 -1) to (0 1 1)
  bounding box extra memory = 0.03 MB
  average # of replicas added to proc = 20.33 out of 16384 (0.12%)
  4980736 atoms
  replicate CPU = 0.017 seconds
Neighbor list info ...
  update every 20 steps, delay 0 steps, check no
  max neighbors/atom: 2000, page size: 100000
  master list distance cutoff = 11
  ghost atom cutoff = 11
  binsize = 5.5, bins = 275 33 41
  2 neighbor lists, perpetual/occasional/extra = 2 0 0
  (1) pair reax/c, perpetual
      attributes: half, newton off, ghost
      pair build: half/bin/newtoff/ghost
      stencil: full/ghost/bin/3d
      bin: standard
  (2) fix qeq/reax, perpetual, copy from (1)
      attributes: half, newton off, ghost
      pair build: copy
      stencil: none
      bin: none
Setting up Verlet run ...
  Unit style    : real
  Current step  : 0
  Time step     : 0.1
Per MPI rank memory allocation (min/avg/max) = 118.3 | 119.5 | 121.2 Mbytes
Step Temp PotEng Press E_vdwl E_coul Volume 
       0          300   -113.27833    439.01975   -111.57687   -1.7014647     56153840 
      10     300.7703   -113.28045     852.2976   -111.57902   -1.7014336     56153840 
      20    302.37485   -113.28509    1753.5565   -111.58377   -1.7013221     56153840 
      30    302.46703   -113.28524    4333.7708   -111.58415   -1.7010949     56153840 
      40    300.50662   -113.27932    6407.4135   -111.57855   -1.7007713     56153840 
      50    297.37627   -113.26995    6439.6975   -111.56954    -1.700409     56153840 
      60    294.76934   -113.26213    6105.2187   -111.56209   -1.7000423     56153840 
      70    294.72024   -113.26195    6745.3935   -111.56228   -1.6996678     56153840 
      80    297.79919    -113.2711    8122.5494   -111.57181   -1.6992898     56153840 
      90    301.62335    -113.2825    9238.4187   -111.58355   -1.6989507     56153840 
     100    302.46834   -113.28496    10276.968   -111.58626    -1.698703     56153840 
Loop time of 25.8976 on 25600 procs for 100 steps with 4980736 atoms

Performance: 0.033 ns/day, 719.377 hours/ns, 3.861 timesteps/s
99.9% CPU use with 6400 MPI tasks x 4 OpenMP threads

MPI task timing breakdown:
Section |  min time  |  avg time  |  max time  |%varavg| %total
---------------------------------------------------------------
Pair    | 14.328     | 17.207     | 19.817     |  17.5 | 66.44
Neigh   | 0.23036    | 0.23755    | 0.25333    |   0.5 |  0.92
Comm    | 0.027754   | 1.6376     | 5.5193     |  67.0 |  6.32
Output  | 0.013974   | 0.15884    | 0.24411    |  13.8 |  0.61
Modify  | 5.776      | 6.6554     | 7.5427     |  17.4 | 25.70
Other   |            | 0.0007173  |            |       |  0.00

Nlocal:        778.240 ave         802 max         758 min
Histogram: 51 416 1096 873 973 1796 516 386 172 121
Nghost:        6307.49 ave        6392 max        6243 min
Histogram: 78 904 1481 616 607 1175 800 298 320 121
Neighs:        287950.0 ave      295841 max      280469 min
Histogram: 34 328 675 1138 1017 1638 857 386 206 121

Total # of neighbors = 1.842882e+09
Ave neighs/atom = 370.00195
Neighbor list builds = 5
Dangerous builds not checked
Total wall time: 0:00:26
